98
 energy: -157.819540672602 gnorm: 0.000529654566 xtb: 6.6.1 (8d0f1dd)
C           -2.15964653514498       -4.86171273481701        3.15177645446122
C           -0.91520274569049       -4.72843638450631        2.60330268187945
C           -0.56102360092959       -3.56423345197055        1.88726432897285
C           -1.50790373261300       -2.51212682160775        1.76886546974842
C           -2.79338120219792       -2.69322791568171        2.32203257445354
C           -3.10911153980216       -3.84005851690025        2.99735651971280
H            1.41185748751575       -4.24281513634174        1.36910235320656
H           -2.42455794513060       -5.75662970309371        3.69532396980002
H           -0.18288926282898       -5.51698567821711        2.69900872974336
C            0.69763844577112       -3.43862224464651        1.26829119073824
C           -1.14083573859973       -1.33817173598663        1.05268611352486
H           -3.53248224415856       -1.91649354429819        2.19819391473141
H           -4.09774261892598       -3.96593304753756        3.41350855520861
C            0.08832448161794       -1.28126921836501        0.43665906880266
C            1.03183462801571       -2.32839749092084        0.53143251038197
C           -2.06727248274930       -0.19573629713763        0.89968258576191
C           -2.57847812980307        0.51968768476750        2.01844293920950
C           -2.40883780764616        0.20685630209597       -0.37162200547338
C           -3.48251190464841        1.59099587825998        1.78847356341055
C           -2.17970924112804        0.24252243857943        3.34338483409600
C           -3.29754503798521        1.27715390622470       -0.61301513573587
C           -3.99479690368946        2.30427902690134        2.89399210729672
C           -3.82989195789328        1.93661552385012        0.46783786675691
C           -2.68448565239479        0.96256720591556        4.39106792752777
H           -1.46071786342185       -0.54257538440567        3.52160870865095
C           -3.60947627756848        1.99381151959034        4.16779043842824
H           -4.69102939911613        3.10945530330358        2.70895731346574
H           -4.52236104889839        2.74967136171941        0.30481216700249
H           -2.36813644288310        0.74159279865035        5.39976116609652
H           -4.00338445534882        2.54662874958180        5.00785962728690
O           -1.82626219783017       -0.44728225194244       -1.46147166155805
O            0.41202789535507       -0.15402288102126       -0.32524130143864
P           -0.30932537424330        0.00096206871510       -1.73462749750443
O            0.17836346267209       -1.22463420752613       -2.62332426276668
H            0.45226605029214       -0.93225435593670       -3.49332280497537
O           -0.09126506504470        1.32145846425303       -2.32403607336284
C           -3.60793220212767        1.67091752227484       -1.99677277543341
C           -4.00564813070755        0.71966014418112       -2.92800129215600
C           -3.48641880858278        2.99972381671087       -2.38435040674293
C           -4.27593472448215        1.08292288021771       -4.24318570289177
H           -4.12721019855649       -0.30834137747934       -2.61984822212368
C           -3.75621158954307        3.38231668234867       -3.69377122756104
H           -3.17068983679383        3.73878762339338       -1.66252075008544
C           -4.15374576744366        2.41804853119656       -4.61370680924935
H           -4.32518326561898        2.70417512970658       -5.64153228930941
C            2.32074701064423       -2.22744937346502       -0.17259371313514
C            3.09609481186590       -1.07855913858291       -0.07184708561077
C            2.76359771121344       -3.28433627656244       -0.96026778810093
C            4.30119467244404       -0.97315278886486       -0.75859103367372
H            2.77102409526871       -0.26797744509166        0.56300052953623
C            3.97080705874658       -3.20120157924696       -1.64621161118184
H            2.16042257587974       -4.17680855285645       -1.04112067286111
C            4.73235914466414       -2.04180406949706       -1.53722981354490
H            5.65055595503713       -1.95334456477714       -2.09990961742652
C            4.43163465136764       -4.32001616029431       -2.48568832572461
C            5.76047754765446       -4.73555988595575       -2.44621228932756
C            3.54732824213992       -4.98031110394688       -3.33567789421626
C            6.19276739363538       -5.78682829322192       -3.23401710551028
H            6.45259798724195       -4.24262676412006       -1.77847679628008
C            3.98303564116932       -6.02711349315999       -4.12771328046581
H            2.51783154882837       -4.65541078456370       -3.38866829200999
C            5.30611361412381       -6.43461766070101       -4.07850728123380
H            7.22530088074689       -6.10280178067559       -3.18887704365407
H            3.28801645254196       -6.52621893592297       -4.78802861724557
H            5.64498567235816       -7.25365885506003       -4.69625275462120
C            5.09457285229513        0.26344982734537       -0.67048309175429
C            4.46646075406679        1.50496413440077       -0.74715770124702
C            6.47777598781017        0.21748127787775       -0.51453674165827
C            5.20703757629461        2.67045263905963       -0.66916257502121
H            3.39529870481530        1.55333114406057       -0.88995966179101
C            7.21499831350794        1.38462251773519       -0.43149230270495
H            6.97377070843016       -0.73954596030229       -0.43737127534591
C            6.58214188592341        2.61422988069893       -0.50985974827514
H            4.70811543176807        3.62682320586643       -0.73585436253641
H            8.28711668481783        1.33557103621220       -0.30418905521186
H            7.15842376210915        3.52607584146224       -0.44750850269708
C           -3.60807192295391        4.78897500666458       -4.10371230235116
C           -4.58702624040067        5.41292061135760       -4.87290039791302
C           -2.48130339144036        5.51674674303580       -3.72869456196068
C           -4.44558822096279        6.73542529165826       -5.25230017515664
H           -5.47184444855499        4.86124691228551       -5.15757781006322
C           -2.33830433481152        6.83681773666960       -4.11602845809409
H           -1.70619994943474        5.03270751341172       -3.15113955161113
C           -3.32064643788884        7.45077045934168       -4.87594447240149
H           -5.21578839737416        7.21048259388674       -5.84340126899367
H           -1.45564167163847        7.38862048984898       -3.82521169063015
H           -3.20886341852854        8.48294486965293       -5.17510620571243
C           -4.66650522233130        0.06121086805937       -5.22815796877929
C           -4.01620772219464       -1.17090311905451       -5.25677132575573
C           -5.68387445026790        0.30388612690490       -6.14811251400266
C           -4.37446984014723       -2.13347041535155       -6.18299167525271
H           -3.21301569551313       -1.36330397274271       -4.55864523877573
C           -6.04387501535986       -0.66196984255425       -7.07036327017962
H           -6.20763458522492        1.24879499810499       -6.12603325091378
C           -5.38992380031483       -1.88283959721000       -7.09153904741461
H           -3.85855779548183       -3.08318680637468       -6.19727378769180
H           -6.83909160686778       -0.46235929961404       -7.77467511215981
H           -5.67014468083779       -2.63612538789699       -7.81367987156709
