77
 energy: -127.470025531085 gnorm: 0.000466226534 xtb: 6.6.1 (8d0f1dd)
C            1.70162336416986        5.28263834694691        2.94173487667734
C            2.62270957268799        4.31862172264669        2.61739844496820
C            2.27152839772759        3.24234927948341        1.77809951163158
C            0.96169807249834        3.17723433051954        1.23725641565827
C            0.02991654461552        4.15879538213966        1.61971126975693
C            0.39606451559211        5.19162199865112        2.45047771528415
H            4.18800708531558        2.27910904763115        1.87504118612219
H            1.97552187981990        6.10395767563494        3.58639724679196
H            3.62861831493370        4.36303773216577        3.00769151524332
C            3.18824674488306        2.21874372890299        1.46921426004871
C            0.62043556730674        2.08118590419213        0.38398378139998
H           -0.98766331357019        4.08617998033246        1.26738404299312
H           -0.33313138608561        5.93701815350890        2.72994195279989
C            1.50911688245229        1.01761187431306        0.22302119062714
C            2.83490377854477        1.11185778512842        0.72560596414249
C           -0.64372300077418        2.09146435413733       -0.35217775303682
C           -0.99570007521871        3.21638299086374       -1.16205986120865
C           -1.52854125347756        1.02043975278705       -0.22306173073861
C           -2.31253487295200        3.30091064164018       -1.68289583287504
C           -0.06796481040792        4.21086080448487       -1.52025211673531
C           -2.86000047890529        1.13150134503377       -0.70642141709313
C           -2.67407740753546        4.40799734480936       -2.47620540765926
C           -3.22551504755512        2.26606224857701       -1.39959587837119
C           -0.44402075632647        5.27309780044791       -2.30835480669791
H            0.95376068846548        4.12459025016253       -1.18310648594043
C           -1.75606628532378        5.38233951814411       -2.77808869091539
H           -3.68531225911551        4.46776835695384       -2.85037476983249
H           -4.23210090858124        2.34200447261832       -1.78541478280218
H            0.28206363616684        6.02754293633279       -2.57112914787253
H           -2.03794648362528        6.22669786103268       -3.38866906155753
O           -1.17352160454522       -0.05057596353523        0.51532712696626
O            1.16456386847168       -0.02446765034255       -0.56040446292354
P           -0.00710281203821       -1.10434609549833       -0.05411763744712
O            0.45060039651082       -1.84248992005774        1.14150526258623
O           -0.46807237799776       -1.76868730689072       -1.29112562578479
C            3.84383179132163        0.08396679306905        0.43692604862062
C            5.10702097130451        0.47262104891703       -0.02001532776108
C            3.58811198021180       -1.27418040598778        0.62737027167124
C            6.07832241202739       -0.46622085620415       -0.28889326128024
H            5.31371682657999        1.52073110724261       -0.18238953053983
C            4.56944017810587       -2.20997912128832        0.37533761301852
H            2.62228250555719       -1.59556707830876        0.98316076570592
C            5.82924223891528       -1.82820740120388       -0.09316987724323
H            7.05148527679376       -0.14582024789199       -0.63076625850444
H            4.34390106614962       -3.25652483145238        0.51777782585833
C           -3.85834419550371        0.08549687054796       -0.44624195233621
C           -5.11166333830953        0.43910361916874        0.06217193532114
C           -3.59653483963387       -1.25866436365604       -0.71205990895344
C           -6.06962020360568       -0.52112838531435        0.30405675859604
H           -5.31883256012240        1.47424428977475        0.29252729655878
C           -4.55709183511951       -2.21714107086400       -0.46684449953214
H           -2.64288160425534       -1.54996749598196       -1.12249677556886
C           -5.80903066702902       -1.87066117809125        0.04806489382691
H           -7.02128585800782       -0.23236822295395        0.72537780064310
H           -4.34027997627278       -3.24847440772239       -0.70276571650548
C            6.86081116378528       -2.83003723347546       -0.37561580165146
C            7.03021926465134       -3.93513681840750        0.46172046675697
C            7.69243947476169       -2.70128275785639       -1.49052033122458
C            8.00319676774970       -4.87836657482336        0.19279938759562
H            6.41039923009820       -4.03646589113694        1.34054083646479
C            8.65701266487168       -3.65222432170548       -1.76217619623413
H            7.55613602508768       -1.86630143161261       -2.16203970310900
C            8.81810003931789       -4.74285369012320       -0.92094328687873
H            8.12848118281766       -5.72337887348062        0.85432968946944
H            9.28435201691178       -3.54646108781141       -2.63540585643396
H            9.57392236122137       -5.48466621351036       -1.13294674153124
C           -6.82052003255812       -2.89679851778630        0.31715114220505
C           -8.16876276062575       -2.66539199354117        0.03578224452391
C           -6.45189648175624       -4.12856151347650        0.86294854363644
C           -9.11658558751657       -3.63850131786124        0.28806019307323
H           -8.46643244189171       -1.72766885441379       -0.40991009744755
C           -7.40414267478434       -5.09459383411355        1.12498450815528
H           -5.41552053214562       -4.31269689107809        1.10634397220174
C           -8.73919805356853       -4.85497517831950        0.83629349613189
H          -10.15466311012882       -3.45049212187297        0.05522568379352
H           -7.10505788755265       -6.03860793092686        1.55709287790787
H           -9.48142497398060       -5.61337229836238        1.03742057679249
