69
 energy: -110.371193703296 gnorm: 0.000391119510 xtb: 6.6.1 (8d0f1dd)
C           -1.99765512418604        4.46424016969399       -2.67442709957748
C           -2.88460884879901        3.49763262312593       -2.26707320824817
C           -2.45047153444816        2.40704395196477       -1.48925486922896
C           -1.09038698691985        2.32803512891567       -1.09532702747657
C           -0.19942902092526        3.31067495225525       -1.56107218488567
C           -0.64820067199325        4.36064042141527       -2.32927974150402
H           -4.37157935994522        1.44818439388200       -1.39155659968226
H           -2.33615106709075        5.29691177075761       -3.27198878766294
H           -3.92653349449812        3.55300992515682       -2.54517646050404
C           -3.33301261223893        1.37828144098338       -1.10119527383519
C           -0.66213471546412        1.21355500352022       -0.30608559257396
H            0.85034689941102        3.22619989368285       -1.32474710601511
H            0.05077256427141        5.10800793761926       -2.67308911114852
C           -1.53401839396463        0.14436442493003       -0.07387072186089
C           -2.90620065687842        0.25733904577411       -0.42209548562267
C            0.66215461881300        1.21354740150671        0.30608012521234
C            1.09038856808579        2.32798960176073        1.09537824506973
C            1.53402465988884        0.14434307897300        0.07387620584513
C            2.45048966837245        2.40705613123151        1.48922928038595
C            0.19939655842931        3.31054714248797        1.56125726608782
C            2.90620151425104        0.25731856113339        0.42210765659849
C            2.88469490975033        3.49778269295146        2.26682291178994
C            3.33301159296667        1.37825777625288        1.10123264693359
C            0.64818307411191        4.36055557748467        2.32941842834213
H           -0.85027563149107        3.22631245906582        1.32455755837250
C            1.99775014106793        4.46441655301282        2.67415936519949
H            3.92649020172244        3.55287903613257        2.54535654072990
H            4.37157783147341        1.44817462551002        1.39159590735258
H           -0.05071944972401        5.10810336410355        2.67295850816071
H            2.33613855237461        5.29681124651102        3.27215134461454
O            1.11389345298146       -0.91303345103800       -0.64337269500060
O           -1.11391735480345       -0.91299917117905        0.64341086468098
P            0.00000282783334       -1.98270642431495        0.00007666828711
O           -0.57438205108004       -2.68207170579406       -1.16709291881984
O            0.57440062119317       -2.68192428752457        1.16732909135997
C           -3.88026019360133       -0.77687832420164       -0.03953131289674
C           -5.06132117706043       -0.40024625961295        0.59807480194830
C           -3.65373096814926       -2.12039531033306       -0.32419590322015
C           -6.00766508796112       -1.34891349661860        0.95825324855417
H           -5.22975692930771        0.64081741439626        0.83468733245548
C           -4.59048117996141       -3.08332617118370        0.02612010673982
H           -2.74714162706083       -2.41702981917040       -0.82694408652020
C           -5.75895761025702       -2.68630570180405        0.66614260231566
C            3.88024427187103       -0.77688212048134        0.03953013893225
C            5.06131141754796       -0.40023539149927       -0.59804727118911
C            3.65371671523067       -2.12041839975493        0.32417005924824
C            6.00764993207714       -1.34892184797052       -0.95827791923909
H            5.22968812883200        0.64082698336333       -0.83472921858344
C            4.59047835403974       -3.08335925691279       -0.02618022260113
H            2.74716010678252       -2.41705373735421        0.82699065949120
C            5.75893349533519       -2.68634172182653       -0.66624007533872
H           -6.48804622293171       -3.43431273967460        0.94524734061347
H            6.48806458373239       -3.43434391390282       -0.94526038600938
C           -4.34781232518794       -4.52429696551818       -0.29987789463000
H           -4.68594040976008       -5.16777755318075        0.51011206872565
H           -4.89500683446519       -4.80080928776965       -1.20212963942192
H           -3.28867203370956       -4.69953967278580       -0.47624472432247
C           -7.26065347167858       -0.94434581968300        1.67297005293255
H           -8.07445455690071       -1.62890448740618        1.44580124482022
H           -7.09270995148088       -0.96637687885680        2.75066075556821
H           -7.55679101585597        0.06552731011205        1.39894722699912
C            7.26061349690942       -0.94435319712360       -1.67299071947612
H            8.07437695483634       -1.62898536309488       -1.44594993182044
H            7.09260508859065       -0.96625799987157       -2.75066479094742
H            7.55680519774221        0.06547701851716       -1.39888832819666
C            4.34783037018437       -4.52431092179476        0.29985105420441
H            4.68595440753640       -5.16778212127860       -0.51014576091289
H            4.89505641967701       -4.80082152295295        1.20208892521057
H            3.28869137185741       -4.69955401471414        0.47624683518922
