69
 energy: -161.075497192928 gnorm: 0.000368647484 xtb: 6.6.1 (8d0f1dd)
C           -1.80176215909632       -5.24309455828348        2.82072403524381
C           -2.71269347158699       -4.26691558677065        2.48756089773142
C           -2.33319767977549       -3.17735436441220        1.68060676286331
C           -1.00848750338810       -3.10880848715744        1.17462262694510
C           -0.08911287874149       -4.09902762817579        1.56980195231748
C           -0.48333293364420       -5.14685282647596        2.37195420802452
H           -4.24782923442902       -2.20110047586134        1.75516552630229
H           -2.09951518930867       -6.07560647655870        3.43931849219005
H           -3.72885431345629       -4.31573911072789        2.84839928521190
C           -3.23721721403327       -2.13734544640319        1.37854050135801
C           -0.63169921401054       -1.99467801282574        0.36052340538912
H            0.93974284368287       -4.02087127135831        1.25455711014180
H            0.23625338728053       -5.89833868689825        2.65860823941308
C           -1.51732250743835       -0.91042035512768        0.20747789157585
C           -2.85195581059400       -1.01733477337209        0.67567425963342
C            0.63170186239641       -1.99467121832879       -0.36059539632485
C            1.00849526068472       -3.10877942915329       -1.17470086831241
C            1.51732937190644       -0.91039916821575       -0.20752379414412
C            2.33321437843671       -3.17732185456777       -1.68067037990085
C            0.08912203107963       -4.09898487389857       -1.56991285680701
C            2.85196616518170       -1.01731803862633       -0.67568854334704
C            2.71271342044717       -4.26686169674868       -2.48763559195622
C            3.23723178098573       -2.13731932544226       -1.37857450613790
C            0.48335099120158       -5.14680632439049       -2.37208006270593
H           -0.93974248754188       -4.02082243992034       -1.25469296780827
C            1.80177478597683       -5.24304074319915       -2.82083257797815
H            3.72888035993966       -4.31569390160927       -2.84845820044415
H            4.24784544575122       -2.20106259327966       -1.75520028834828
H           -0.23623692737146       -5.89828792968681       -2.65874602121064
H            2.09953996333862       -6.07553964526033       -3.43944060300858
O            1.16489960951780        0.13923866643555        0.53945046414328
O           -1.16491551649482        0.13923452331011       -0.53951298595160
P           -0.00001298913383        1.22300219425381       -0.00002744497387
O           -0.49876708333454        1.89558709085434        1.21021641189101
O            0.49875569204301        1.89558559528766       -1.21026459686844
C           -3.83350955128371        0.04414296837401        0.38141846475021
C           -5.06759024061272       -0.29917365600009       -0.16566057901478
C           -3.55274266583529        1.38155183680959        0.64595352915075
C           -5.99879295864295        0.68812157090643       -0.45463489575101
H           -5.29601322179189       -1.33133416430659       -0.38732128020969
C           -4.49690845973890        2.35425807839121        0.35021422529466
H           -2.60772688298523        1.67037581055876        1.08146984682631
C           -5.72635965273440        2.02546426529861       -0.20400170226349
C            3.83351721794572        0.04415537017523       -0.38140899623528
C            5.06759410095425       -0.29916562260734        0.16567637656743
C            3.55275027964585        1.38156885536714       -0.64592362253289
C            5.99879120340356        0.68812757990247        0.45467716531792
H            5.29601916666436       -1.33132904522794        0.38732164244683
C            4.49690972880858        2.35427344901466       -0.35015729130540
H            2.60773881987223        1.67039906415389       -1.08144575723167
C            5.72635683581969        2.02547429960093        0.20406476080735
H           -6.45167297844281        2.79094844451067       -0.43395029970326
H            6.45166534017633        2.79095673919946        0.43403491759698
C           -4.15154148701815        3.79575081468189        0.61301498331960
C           -7.33377240870314        0.28253842460218       -1.02130406707419
C            7.33376494432239        0.28253714284754        1.02135512046812
C            4.15153506408847        3.79576742644478       -0.61294328302115
F            7.22832906273524       -0.69970079043802        1.93209721847154
F            8.15952805198454       -0.19321381774131        0.06660717654071
F            7.98778678540347        1.28651422591685        1.61614243390595
F            5.23372894259942        4.59456434808812       -0.63493218517704
F            3.34069440509052        4.30324247542192        0.33388635114814
F            3.53415239396002        3.97666509809798       -1.78852732417285
F           -7.22834943653076       -0.69970296084375       -1.93204379681515
F           -7.98779030927568        1.28651881213360       -1.61609029870729
F           -8.15953356208724       -0.19320345271543       -0.06654978034278
F           -5.23375462654991        4.59451963495107        0.63513562118374
F           -3.53404723574905        3.97662863141881        1.78854205121577
F           -3.34080890196411        4.30327731560725       -0.33388110960155
