93
 energy: -135.707640411924 gnorm: 0.000211827945 xtb: 6.6.1 (8d0f1dd)
C            2.07665870779851        4.78937596087747        2.90897649000129
C            2.93525201389111        3.77844048567220        2.55144761195065
C            2.50400288288494        2.73325104836277        1.71192058052056
C            1.17886949796406        2.74569318384886        1.20639406090779
C            0.31344286866838        3.77370697223251        1.61905996436052
C            0.75792842885293        4.77773022746794        2.44893867318103
H            4.36716247080845        1.66450393674784        1.74689704022992
H            2.41262772942328        5.58607570846272        3.55503257458766
H            3.95136958419335        3.76337456965748        2.91669962414224
C            3.35444435595228        1.66231757579669        1.36988618182877
C            0.75111373463501        1.67136644803343        0.36387366971218
H           -0.71534755344775        3.76095428807805        1.29273453296035
H            0.07907850578087        5.56103071535838        2.75058288694254
C            1.57667977608455        0.55828784370849        0.17517943763078
C            2.92283245769358        0.58329377975206        0.62716873821235
C           -0.52424288016091        1.75056361075922       -0.34216577790564
C           -0.83238166544016        2.88943418737619       -1.15192294366422
C           -1.46525735790166        0.72878849687023       -0.18414681214354
C           -2.15074349859326        3.03565416543868       -1.65429609397757
C            0.13981014723245        3.82896065655786       -1.53596432054190
C           -2.80038344125304        0.91177483797609       -0.63308459163634
C           -2.46588556780801        4.14744993552976       -2.45960964727688
C           -3.11187473553513        2.05292497377534       -1.34320478432526
C           -0.19274840318997        4.90052604206851       -2.33328314259542
H            1.16090283101419        3.69443395259544       -1.21296163826610
C           -1.50246298413429        5.06966686080488       -2.78833488604002
H           -3.47765933007351        4.25450032987471       -2.82145247449230
H           -4.11794472095671        2.17538837511105       -1.71810214614324
H            0.56748263715142        5.61386286049187       -2.61342992442847
H           -1.74975390037621        5.91798885059361       -3.40809162917531
O           -1.15015946618196       -0.35231699069482        0.55268187235977
O            1.14822406276467       -0.46107677082937       -0.59107239744415
P           -0.06043638658180       -1.47461458664589       -0.03649124202324
O            0.39198781495519       -2.22065627655419        1.15566121178118
O           -0.58940945935557       -2.12757147054834       -1.25151830927453
C            3.86704517483891       -0.49200523904402        0.28706191048773
C            5.13244301250148       -0.15812758081428       -0.19422089737477
C            3.52710939285280       -1.83102137610110        0.45320958768162
C            6.05532980489993       -1.14386427665527       -0.50988166906974
H            5.37966937904421        0.88249529550384       -0.34155347909238
C            4.43665546652100       -2.83368441575148        0.14535917864915
H            2.55336994922323       -2.08764199800575        0.83365611380822
C            5.69082228144554       -2.47554215914337       -0.33415509073953
C           -3.85521129461230       -0.06277519994449       -0.31892339098007
C           -5.08044559345156        0.39366962465459        0.17031610054441
C           -3.66156750827115       -1.42725012901860       -0.51055338342171
C           -6.10157092826890       -0.49210682233733        0.47064899736683
H           -5.22213542250864        1.45196137990339        0.33942212837524
C           -4.67341582269322       -2.33207633629815       -0.21906387523292
H           -2.72145472096735       -1.77997566182756       -0.89843615358795
C           -5.88143935346282       -1.85350666433100        0.27024614079894
H            6.40117412156463       -3.25319338857556       -0.58086221002528
H           -6.66475955894210       -2.55988133301335        0.50371081881861
C            4.05863850346845       -4.28540598610400        0.29891157356303
H            4.95477898662174       -4.89478989671609        0.12996890663925
C            7.42544244523978       -0.79073076573928       -1.03638799283441
H            7.97833106251767       -1.72367055408260       -1.19193010565576
C           -4.45162837533153       -3.81342656785127       -0.39743483410547
H           -5.40789981909001       -4.32680062522816       -0.23907094577199
C           -7.41909415914984        0.01346555115291        1.00646414915780
H           -7.35853961485892        1.10499122344192        1.08235932473584
C           -8.56435567742013       -0.33423638560935        0.05171307184068
H           -8.36569138660271        0.06696695917879       -0.94007717161229
H           -8.68609819214654       -1.41107958611936       -0.03286516936557
H           -9.49760151034844        0.08906775205128        0.41698011934336
C           -7.68601679382135       -0.54466330161377        2.40701297194583
H           -6.85926641395941       -0.30581743401350        3.07325251975540
H           -8.59702511136693       -0.11247550580508        2.81555686282871
H           -7.80144820110555       -1.62523860193565        2.37965744604477
C           -3.95483713417635       -4.14564032483560       -1.80562043820836
H           -3.90684947175794       -5.22445168318435       -1.93910367413566
H           -4.62594839059303       -3.73159109721030       -2.55607429506779
H           -2.95857214033783       -3.74090246366368       -1.96731187894483
C           -3.45780057633815       -4.31410640639179        0.65541640570107
H           -2.48855730282445       -3.83499144267120        0.52554882947185
H           -3.81623489940140       -4.09011753025791        1.65877269725957
H           -3.32229940547282       -5.39001138435457        0.56592218015667
C            3.01643142614000       -4.65984398218818       -0.75967800925941
H            2.10636884135702       -4.07743362891385       -0.62419832611521
H            3.39904695049258       -4.46580706369735       -1.76033172639170
H            2.76205567040773       -5.71494694784874       -0.68244890795658
C            3.52893180725582       -4.58540472420590        1.70249885797106
H            3.36576913005882       -5.65489538243585        1.81837954104539
H            4.24058879933549       -4.25792991123495        2.45830633605135
H            2.58165800091211       -4.07901119242256        1.87220090952174
C            7.32046513895417       -0.07117823461931       -2.38414080186131
H            6.81526895185863        0.88542282210300       -2.27580287732987
H            8.31318034149156        0.10771456528931       -2.79169117934870
H            6.75877628554633       -0.67645380357715       -3.09305634161233
C            8.19953785196456        0.05678238869314       -0.02302066279039
H            7.71758903775023        1.01943959667014        0.12719168769311
H            8.25330380901241       -0.45603900742804        0.93519222159715
H            9.21238399924247        0.23235205956333       -0.37910449091001
