82
 energy: -136.638591161790 gnorm: 0.000264101776 xtb: 6.6.1 (8d0f1dd)
C           -2.01439547478204       -4.41877321333310        2.42180525125270
C           -0.73948463274328       -4.36916091354321        1.93269389413039
C           -0.29322017115896       -3.25300019562856        1.19179803205435
C           -1.17784739483755       -2.16274603694829        0.98550844167241
C           -2.49508824316179       -2.25524779863603        1.48254113483159
C           -2.90135622526494       -3.35786526012226        2.18272252329685
H            1.68031154054621       -4.01843203803424        0.84925238709638
H           -2.35140094912503       -5.27699283925981        2.98421110314698
H           -0.05377250057392       -5.18823758224934        2.09444774557172
C            1.00288306483946       -3.20177592210356        0.64718088252170
C           -0.71396535547564       -1.04064435687289        0.24301167655184
H           -3.18670486157550       -1.44854478153348        1.29328116798652
H           -3.91423479496944       -3.41836229559245        2.55260748272107
C            0.53428832561720       -1.07363976497601       -0.33428134429097
C            1.42984810723562       -2.14923335391064       -0.13046908798243
C           -1.57183588463897        0.14943239872695        0.06223232898405
C           -2.04289738713303        0.88720933224685        1.18353525287887
C           -1.90980422109879        0.54947943211304       -1.21070889442831
C           -2.93429324859017        1.96807109326755        0.95783801128574
C           -1.62236718936489        0.61822037215905        2.50317984005556
C           -2.80386564405384        1.61868325010909       -1.45013899861680
C           -3.41362156973821        2.70420553485133        2.06333797159525
C           -3.31343729238175        2.28610513136898       -0.35922227785172
C           -2.09271209999667        1.36134473303168        3.55072818768849
H           -0.91240927756828       -0.17604709694490        2.67709617821696
C           -3.00529434588421        2.40489406598210        3.33253298464063
H           -4.10144556844594        3.51737397550965        1.88195119052390
H           -4.02621304442170        3.08308418365883       -0.51288248441091
H           -1.75841624358779        1.14923567433064        4.55552020420750
H           -3.37189641753110        2.97511120964876        4.17331176723972
O           -1.34202022737392       -0.13477439256622       -2.28765352675836
O            0.92687805220591        0.00185622153155       -1.13774192648380
P            0.21161836836584        0.18530425181253       -2.54543014135027
O            0.61908506178483       -1.09234800905636       -3.39987015119207
H            0.80484149323897       -0.85339596193961       -4.30870768502546
O            0.52149219328239        1.47441400960316       -3.16235271359634
C           -3.21715503849589        2.00020540793229       -2.80879361855731
C           -3.54901747636734        1.02632516013385       -3.76318145659674
C           -3.34127683380840        3.33713826403433       -3.13792243674581
C           -3.98979517157012        1.40637561783426       -5.00263483710375
H           -3.47020232725360       -0.01955509544309       -3.50797658724597
C           -3.81272719526987        3.75597781691144       -4.38903318992904
H           -3.05194053256028        4.06886002934662       -2.40056150299465
C           -4.13991949477877        2.76119943854416       -5.34152438102305
H           -4.24627631170926        0.65713106736668       -5.73887131878288
C           -4.00114066156693        5.14667100063913       -4.73206061373031
C           -4.62942882888636        3.13924457245629       -6.62369161688241
C           -4.50833610599788        5.47558344934333       -6.01223219353283
C           -3.72277542504342        6.20060595179709       -3.84647491414568
C           -4.80716372097589        4.44072426578623       -6.94465961461903
H           -4.86219457397530        2.35661374388550       -7.33223320444212
C           -4.71941174226982        6.82186047330708       -6.35346884121838
C           -3.93837944530784        7.51002669891204       -4.20144232618931
H           -3.33080446442487        5.99124695893041       -2.86356059753547
H           -5.18505320838870        4.72467763946682       -7.91696831259911
H           -5.10965731398399        7.05236544565892       -7.33506790040486
C           -4.44238473225552        7.82754985816759       -5.46354099574075
H           -3.71749884824371        8.30112205583718       -3.49910218581615
H           -4.61126735058652        8.86025316363902       -5.73258113625371
C            2.78915949453833       -2.15464070115890       -0.69280784331855
C            3.59392822466437       -1.00537442761436       -0.65364483848906
C            3.30923240560600       -3.32519294627681       -1.21382290086321
C            4.87850056322140       -1.05473478569675       -1.12577862534133
H            3.20089012769201       -0.09079820626442       -0.23641444828092
C            4.62756902458720       -3.41253448929717       -1.68020505764565
H            2.66503580283502       -4.18868442127425       -1.26111289816433
C            5.42562755328711       -2.24406956492603       -1.63506596477703
H            5.49890633083480       -0.16981884503231       -1.09569088679017
C            5.20658204219595       -4.64113557638401       -2.17280381320736
C            6.77429058572039       -2.28743869544426       -2.08878798539078
C            6.55830277204810       -4.64257313841635       -2.59367072914311
C            4.49817649678487       -5.85219050418321       -2.23785359518380
C            7.31775912153564       -3.43800425521312       -2.54633105977641
H            7.35504716125625       -1.37649602304899       -2.04985488015450
C            7.14480975283446       -5.83468898516144       -3.04998661127708
C            5.09270357557828       -7.00620653841230       -2.68717307682823
H            3.46499437768416       -5.89146320748868       -1.93030732940297
H            8.34474962566303       -3.46971635229008       -2.88251488343254
H            8.17941851058382       -5.81613457889401       -3.36332151849491
C            6.42727000541746       -7.00231326147860       -3.09535602890267
H            4.52497258361026       -7.92502532344396       -2.72370917647083
H            6.88743472386981       -7.91577121384778       -3.44336847476633
