75
 energy: -116.715816745415 gnorm: 0.000648878625 xtb: 6.6.1 (8d0f1dd)
C            2.26534584128965        4.52655851389890        2.57721879058740
C            3.08481687759704        3.51500542681127        2.14254554300592
C            2.57015997284088        2.44889043471448        1.37972384476019
C            1.19500643146928        2.44361143759980        1.02909127392222
C            0.37306784567747        3.47518597909587        1.52402346550572
C            0.89996418843299        4.49538504911522        2.27773538906932
H            4.43912413654165        1.39042999560335        1.22934928761933
H            2.66759399383384        5.34029220449018        3.16145658227384
H            4.13642049273228        3.51426229464141        2.38875198256083
C            3.38790118150719        1.37100961233347        0.97762370303079
C            0.68266450349748        1.36067458476250        0.25383197833835
H           -0.68560069051701        3.45036238133052        1.31550556619680
H            0.25434681822046        5.27875879664513        2.64519014675911
C            1.50698764378266        0.27183467425272       -0.04440970257697
C            2.88056531621649        0.29209646805949        0.29487635439635
C           -0.68826729137676        1.36179708468219       -0.25239505220419
C           -1.19920761484544        2.44563274418637       -1.02747705462047
C           -1.51392387543804        0.27391946919164        0.04497530153988
C           -2.57413160372666        2.45213446335473       -1.37914519682398
C           -0.37624084242554        3.47701113539971       -1.52098107209357
C           -2.88692480199091        0.29471818684635       -0.29645132901423
C           -3.08750719239285        3.51934679205726       -2.14134006686239
C           -3.39296930387924        1.37423298008685       -0.97925756289754
C           -0.90191877337946        4.49835638010639       -2.27404393792064
H            0.68226263990837        3.45130631531553       -1.31175880076974
C           -2.26705978532216        4.53080493474872       -2.57440176291846
H           -4.13893502979584        3.51956504831024       -2.38828993706104
H           -4.44388228075946        1.39446625148333       -1.23220525826978
H           -0.25549824036724        5.28168255333717       -2.64019119038299
H           -2.66837611551085        5.34546574236979       -3.15798408478116
O           -1.02794923001290       -0.75897985395133        0.76503247997446
O            1.01929636097011       -0.76100935110903       -0.76328652465391
P           -0.00495902047058       -1.83917682579852        0.00161185800789
O            0.71405074884092       -2.53333730261511        1.08987781693145
O           -0.72484009636229       -2.53419436111030       -1.08546587940152
C            3.75120741622544       -0.83528759209360       -0.10261362616393
C            4.15987311091758       -0.95515206471413       -1.43524704051192
C            4.16269233961024       -1.77474056557139        0.85528614033268
C            4.97909516823277       -2.01223982764317       -1.79425509752233
C            4.97983209898394       -2.82032267245626        0.45644670322413
C            5.39550045496932       -2.95976403437641       -0.86175892379839
C           -3.75687083759763       -0.83364397379932        0.09946582300388
C           -4.16382767090308       -0.95689316734779        1.43234665281074
C           -4.16758532679397       -1.77202497022896       -0.85989650787450
C           -4.97946589837357       -2.01686019198109        1.79019050426383
C           -4.98242069003273       -2.82017297021394       -0.46236481032564
C           -5.39604894216911       -2.96301250121329        0.85568647458187
H            5.29058108349380       -3.55127740231096        1.18932883807514
H            5.29687211146872       -2.10775819810255       -2.82298695403269
H           -5.29535174122005       -2.11599300219903        2.81916178897327
H           -5.29248259676717       -3.54998500394818       -1.19668751664127
C            3.71616880407410        0.04687788158335       -2.45867537653277
H            2.64443495267617       -0.05447722203766       -2.63191776564234
H            3.90682599549933        1.06352766895094       -2.11637300994895
H            4.23325942566897       -0.11228097207326       -3.40155029738826
C            3.67553612772703       -1.69155503107575        2.26610760757590
H            2.61881682291864       -1.96671518489509        2.28147786268426
H            4.21914658112118       -2.38271522056200        2.90509580049205
H            3.76343171908541       -0.68400073861372        2.66763141615566
C           -3.68255052807091       -1.68486296712399       -2.27109946689234
H           -3.77140878981591       -0.67638002330881       -2.67006942362358
H           -2.62567243243883       -1.95941322269477       -2.28827220219456
H           -4.22637891178107       -2.37490687323675       -2.91109935768266
C           -3.72357133489494        0.04574895739539        2.45670377831839
H           -2.65143607986283       -0.05176810719917        2.62948446427822
H           -3.91830337857514        1.06203462445304        2.11564701117601
H           -4.23968670804465       -0.11648444920968        3.39958247510914
C           -6.24585354427831       -4.12120098847619        1.27133123544147
H           -6.87196430051413       -3.86163275131614        2.12189353801923
H           -6.87457474859915       -4.45810397844284        0.45039753383345
H           -5.60529305362205       -4.95395088434702        1.56667096433496
C            6.29048386860075       -4.08791453110597       -1.26567396401676
H            6.17328979242958       -4.31928842012770       -2.32167069576386
H            7.33214461117831       -3.81281658456886       -1.09221655604294
H            6.07753182468786       -4.97880308401390       -0.67899497131215
