77
 energy: -122.645957386101 gnorm: 0.000181086156 xtb: 6.6.1 (8d0f1dd)
C           -0.44792548222694       -1.02128932674889       -2.05709415671653
C           -1.12242260663372        0.10810265217254       -1.26787922461903
H           -0.51864759313867       -0.85192213748953       -3.13438503601452
H           -0.88378300712592       -1.99749437481470       -1.84427459673553
H           -1.44588546876902       -0.26475116027835       -0.29385776754509
H           -1.98649222991198        0.52715511899644       -1.77859811692652
C           -0.00514969059293        1.16081813544635       -1.05428236776388
C            0.08268676913118        2.11420970969210       -2.27168434404142
C           -0.97750629350325        3.19061700593882       -1.99831066625017
H           -0.07440939997013        1.59245413542853       -3.21327658971819
H            1.07435409685185        2.57111174695385       -2.29117749403266
H           -0.70891333053606        4.15708029491525       -2.42513571418174
H           -1.95047446792197        2.90502714030344       -2.40563315084715
C           -1.02935523680657        3.23261841859234       -0.49938312587137
C           -0.37620746951142        2.12412320165476        0.04080259854059
C            1.21092948748972        0.27916885129988       -0.95016013010445
C            0.98011446435132       -0.93081638398677       -1.60825754877969
C            1.98648769843211       -1.86474828838593       -1.74085709002537
H            1.80628566709131       -2.80254128540597       -2.24468709696864
C            2.43972539427155        0.52254349880229       -0.36931375178518
C            3.48227971896775       -0.40046352961718       -0.51687793107155
C            3.23691905182640       -1.57894098104798       -1.21798963474280
H            4.04596849523937       -2.28291599120359       -1.34259598989944
C           -0.20698054633791        2.01626969787135        1.40680670422523
C           -1.57237274706731        4.19640267209932        0.32509663427902
H           -2.07223088952865        5.05963560752454       -0.08821420404586
C           -1.46589585465770        4.03984847160683        1.69755039504728
H           -1.91438071853382        4.76756825332024        2.35718219889117
C           -0.77196042320280        2.97059424738793        2.26059847557659
O            0.63172144562942        1.01653479684330        1.91612842998239
O            2.61994194600031        1.65454647776444        0.43809825535356
P            2.16815431471229        1.50589908854515        1.95312423858446
O            2.87237727127716        0.17642379929108        2.46840205873586
H            3.00523621864665        0.20614883999949        3.41660380669312
O            2.43779350291500        2.71730613668048        2.72756173960282
C            4.82661474988404       -0.13448402333853        0.01716565940270
C            5.53524217620823       -1.12859522122882        0.68861925880976
C            5.44542951071609        1.09520695084587       -0.19624220569472
C            6.82868056029135       -0.90606995474214        1.11664575359790
H            5.06069493978221       -2.07951886241158        0.88325477800959
C            6.74328110747309        1.31198603899745        0.22178737934208
H            4.91048356564895        1.87877499858845       -0.71276600143337
C            7.46112782926390        0.31200969382795        0.87460588358450
H            7.36915692252718       -1.69614644233075        1.61822448508100
H            7.20527666614363        2.27332446921299        0.04787279579193
C           -0.67526814626114        2.84287666240336        3.72140708657090
C           -0.38086182681494        3.94826365065636        4.51618449092905
C           -0.93723621773341        1.62536459589931        4.34578351792502
C           -0.36438302187972        3.84247639998494        5.89234601872744
H           -0.14810484077206        4.89251448149657        4.04625267801929
C           -0.93265998402283        1.52405651634082        5.72276618689858
H           -1.16743592462389        0.75782192679572        3.74416705529154
C           -0.65642447737454        2.63282311430903        6.51987571075698
H           -0.15026537038299        4.71543665237340        6.49237975001045
H           -1.13736392228558        0.57041805751215        6.18864260408217
C           -0.69646708601257        2.53476779887224        7.98728985589074
C            0.27773551729607        3.14588063676162        8.77375180088648
C           -1.72526258537191        1.83786881479250        8.61848495151077
C            0.22428612750885        3.06016234683970       10.15315446787571
H            1.09140483807946        3.67405826972831        8.29726546864142
C           -1.78013249100154        1.75810664395406        9.99786322064068
H           -2.49844160573733        1.37583630664390        8.02125224219464
C           -0.80529901212363        2.36835715109841       10.76995903687619
H            0.98970286895906        3.53507856986183       10.75052185610714
H           -2.58869917076228        1.22086096740784       10.47313048530396
H           -0.84828473975230        2.30577467310497       11.84770814914173
C            8.86116527260793        0.52595755483912        1.27277799318712
C            9.33000594190708        0.09273846890752        2.51108783547548
C            9.75151793767511        1.15300243646850        0.40298094685159
C           10.65226421701698        0.28309987890165        2.86921480687333
H            8.64728360821950       -0.37840900067107        3.20379121726218
C           11.07459860468824        1.33688885749214        0.76023118327545
H            9.40627298146546        1.47722198257621       -0.56839951267581
C           11.52949486343961        0.90325751799744        1.99470776239618
H           11.00072762432910       -0.05361584085071        3.83533872429961
H           11.75487092848617        1.81781699419053        0.07161723884673
H           12.56328897643547        1.04752472576206        2.27356757658183
