93
 energy: -130.869359291275 gnorm: 0.000748585802 xtb: 6.6.1 (8d0f1dd)
C            0.82714891922499       -0.70174490831265       -1.35340884712619
C            0.06216821930921       -0.16174808965024       -0.13863487327022
H            0.42830102845154       -0.30075925465865       -2.28837263523429
H            0.79297194951764       -1.78954890073238       -1.41794634051348
H            0.13597406325592       -0.87062688080274        0.68884993907359
H           -0.99079707047338        0.01816662940745       -0.34323347124301
C            0.81315698672870        1.13739324971366        0.24968928394352
C            0.32163246227692        2.32178097738834       -0.62088910068137
C           -0.95943566461740        2.80617104758478        0.07332049576656
H            0.16010433843406        2.03231755400272       -1.65692984497894
H            1.07443254581939        3.11271995938029       -0.59660049092402
H           -1.12274984586040        3.87647119860126       -0.05561582025575
H           -1.84247372763544        2.28740867484802       -0.30754694077790
C           -0.71357048558865        2.44756140232975        1.50963414516537
C            0.39191945795897        1.60208718786336        1.61761416415917
C            2.23013596474420        0.76167416699080       -0.09973970869517
C            2.22017992413197       -0.19742775063056       -1.11677685272814
C            3.38753653333394       -0.56783513831735       -1.74902816281193
H            3.37821492844240       -1.30102771550709       -2.54149853931714
C            3.43538195934396        1.26149184582114        0.35221813379367
C            4.62971631433735        0.92513853491223       -0.29913055748951
C            4.57612843258462        0.03434802765680       -1.36503139518601
H            5.48935084915030       -0.19557400337754       -1.89140234834820
C            0.87326206388230        1.25401575247989        2.86296961722477
C           -1.40095086714925        2.84773519052822        2.63611163427172
H           -2.26486164431036        3.49078828170631        2.55798411823888
C           -0.96881329811292        2.40513630481278        3.87771644569571
H           -1.52273316579010        2.67322624883389        4.76424137062136
C            0.18574694550498        1.64161339169342        4.01934611951441
O            2.06427549785229        0.53350467245136        2.95207973899214
O            3.47473436488524        2.09955991554844        1.47235069852902
P            3.40449076592143        1.41963865569369        2.90048175483647
O            4.47726031297053        0.25050093723735        2.85096345467750
H            4.66484651699020       -0.08809225437821        3.72703113483210
O            3.57229974977937        2.40381244267831        3.96896722362279
C            5.91200324023024        1.57530006501299        0.07042396351883
C            6.96589979386043        0.83599702152007        0.62281630099647
C            6.07194155292678        2.94296459987370       -0.19356628506026
C            8.15895544259554        1.48316761495021        0.91832035553933
C            7.27502902537664        3.55592618805224        0.13018404443635
C            8.31360146100498        2.83526549859539        0.68517631573602
H            8.98075579930186        0.92428572923928        1.33888903093958
H            7.40739226942309        4.61030056023676       -0.06092765930157
H            9.24574239203670        3.32527328457756        0.92854945775913
C            0.66944339023392        1.21019213999834        5.35174835693844
C            1.10679833181575        2.15372003291680        6.29153271052243
C            0.68008763576288       -0.15690235944334        5.66329596509385
C            1.59719400775941        1.70422160370201        7.51079156029153
C            1.18660889586836       -0.56484150579954        6.89004838258477
C            1.65794396731732        0.35632547722924        7.80447985101969
H            1.93836828693336        2.41808430001946        8.24498406939631
H            1.20602372376101       -1.61518505821962        7.14038923681682
H            2.05513503195893        0.02505658884908        8.75373580497442
C            0.07278173764735       -1.19468990463365        4.74258892084842
H           -0.26499534113036       -0.70222980225906        3.82657572024000
C            1.03073605309633        3.64348781009410        6.04029451352407
H            0.74668534631840        3.81003658873871        4.99756024660886
C            4.99720276976270        3.76507664201443       -0.87167236625620
H            4.13374585308552        3.12545321904298       -1.07411760734847
C            6.85061863917760       -0.64671887514101        0.90212172241280
H            5.79649442725866       -0.92949455660335        0.83099266776601
C            4.53003496382458        4.91148443441931        0.02910997762560
H            4.18160489066747        4.52046754218717        0.98312126418529
H            5.33717494299183        5.61444906290387        0.22077753631164
H            3.71191483956168        5.45126902481801       -0.44491321441222
C            5.50016385594654        4.29494456500221       -2.21914522235113
H            6.33696892397840        4.97678150927864       -2.08657332124532
H            5.82582580978784        3.46994411890097       -2.85049134178676
H            4.70178090402234        4.82819917247394       -2.73148239418898
C            7.34414392615112       -0.99636624705956        2.31128358245240
H            6.99030790864507       -1.98561721039079        2.59375084475117
H            8.43076060816326       -1.00366725546630        2.35548537753288
H            6.97574435536260       -0.27357653836826        3.03465832018547
C            7.64786945012281       -1.45182657048392       -0.13025339187511
H            7.28557071028773       -1.26789269238996       -1.13816447390157
H            8.70040799586068       -1.17830716818396       -0.09420604593050
H            7.55944255496868       -2.51611486830553        0.07837184063577
C            2.38071242076795        4.33139565513291        6.25519754078205
H            2.70326584550803        4.26764606014534        7.29137551557446
H            3.13274547040236        3.86648779290010        5.62385166936421
H            2.30519245107194        5.38353202682511        5.98665764910325
C           -0.03658164058776        4.26989756142551        6.94559303804152
H           -0.14955785621925        5.32730719495535        6.71495138129008
H           -0.99891185086276        3.78096143716710        6.80906611680874
H            0.24504691475000        4.17439099111037        7.99187609541966
C            1.08409748476713       -2.27372599849650        4.34857396843436
H            1.93880248880892       -1.82081591881847        3.85097757167150
H            1.43819707406175       -2.82029558998621        5.21935800841812
H            0.62259472340432       -2.98392894919796        3.66432426078439
C           -1.15868998809936       -1.81886110379412        5.40889940025356
H           -0.88295401112915       -2.36282969985823        6.30898881623070
H           -1.87240890636473       -1.04384218954928        5.68175198986826
H           -1.64484631930062       -2.51104040565980        4.72412881652760
