81
 energy: -131.240258193565 gnorm: 0.000163664983 xtb: 6.6.1 (8d0f1dd)
C           -0.58292923920524       -0.91164794947274       -1.99106332797177
C           -1.16644675192947        0.27082764671291       -1.20656019484479
H           -0.65021067897327       -0.74749503601313       -3.06930313524361
H           -1.08779057701196       -1.85117353868481       -1.76586301365437
H           -1.50629709824732       -0.07045151161849       -0.22646036806253
H           -2.00256564697137        0.74707036683416       -1.71375164324778
C            0.02788678985469        1.23935170893733       -1.01234353154709
C            0.18898736810779        2.15399270000754       -2.25239590332882
C           -0.79720905156436        3.30632901021989       -2.01344858741178
H            0.00326589757415        1.62201494831186       -3.18298134884392
H            1.20939717812125        2.54293507293787       -2.27343489761703
H           -0.46086963732868        4.24111880027579       -2.46228843812684
H           -1.78510494270557        3.07780724246787       -2.42069883847058
C           -0.85206540854088        3.39071008469845       -0.51614568781162
C           -0.26852567375142        2.25819081996560        0.05503481595077
C            1.16985575015033        0.26536443174487       -0.89120672180483
C            0.85133133893226       -0.92419986490161       -1.55167847638403
C            1.78981596747865       -1.92370898926095       -1.70149231321719
H            1.54182717901127       -2.84164723152259       -2.21291292253244
C            2.41148061388040        0.40958865163233       -0.30584291314194
C            3.38525478970481       -0.58263073064534       -0.47113933645433
C            3.06358878952553       -1.72982603455152       -1.18872148971695
H            3.82419986782160       -2.48428747477008       -1.32554422359680
C           -0.10195107833438        2.18498800337092        1.42321750532509
C           -1.34682664190230        4.40361444593638        0.27905600198175
H           -1.79907080481120        5.28038099509830       -0.15981433383034
C           -1.25620070119407        4.27919520993310        1.65742879183094
H           -1.66639870872594        5.04599281260987        2.29808355216842
C           -0.61518484643074        3.19345112988479        2.24636684891490
O            0.64455552719848        1.13968306037933        1.97564866472327
O            2.69539662532355        1.52466467044479        0.49168769491029
P            2.22415510760024        1.45978256655943        2.00676001230135
O            2.76664108557551        0.07211927604784        2.55905518802916
H            2.91443661923592        0.11039004327398        3.50413588928054
O            2.63260913381851        2.64892620195711        2.75283699167412
C           -0.50628970570829        3.07886492677067        3.71473238215807
C           -1.18645956686224        2.03812459602696        4.36942366626394
C            0.25220262304750        4.00750857036486        4.44396062203289
C           -1.07780232519687        1.90971102089173        5.78972424834754
C           -2.01774326295602        1.11599477152054        3.68026938275624
C            0.34263986878604        3.87681223892314        5.86557087437071
C            0.96274066227205        5.06807314680146        3.82427457209113
C           -1.76293394630885        0.85043967791669        6.44032533407444
C           -0.31569085853465        2.82965033808145        6.50271730352434
C           -2.66372561086485        0.11558032908426        4.34077349420262
H           -2.14063460476816        1.22552803239793        2.61290348397653
C            1.10985017839846        4.82068257141842        6.59658301633507
C            1.69263430373583        5.95057833758640        4.56037224485671
H            0.93162902101052        5.15468102200219        2.74902721095561
C           -2.52902951689989       -0.02707714003158        5.73742757264221
H           -1.66466151605132        0.76281290080266        7.51340639741908
H           -0.23688245512403        2.73129455191704        7.57707585247009
H           -3.29360912363724       -0.57562213481672        3.79908398228419
H            1.16451513897045        4.71206967418374        7.67099828335046
C            1.76332647858670        5.83216064735105        5.96407989826068
H            2.23222804477878        6.74920126510123        4.07188479472781
H           -3.04876170284119       -0.83022311099715        6.23989932448188
H            2.34782843802127        6.54626263358778        6.52650959342924
C            4.74359810300313       -0.38533389312299        0.07688096739393
C            5.55004146464226        0.63430853690852       -0.45513813096374
C            5.22422708602359       -1.21567007115711        1.10094596471912
C            6.85994919741316        0.84614380268998        0.07785106868072
C            5.13069418542861        1.45298674324941       -1.53657725854238
C            6.54004032781947       -1.00077620780774        1.61971202066274
C            4.44524123879983       -2.25897022449282        1.66736115644575
C            7.66411196760383        1.88312797815581       -0.46250060479552
C            7.32187258495620        0.02762586850371        1.10357988774425
C            5.93417752996949        2.43400932369193       -2.03239698633526
H            4.15796099008000        1.28013536464047       -1.97294605654963
C            7.01748034629948       -1.84448569962906        2.65651546628067
C            4.93819570169040       -3.04439067366046        2.66455377362738
H            3.44242451378871       -2.41412263909838        1.29962683854276
C            7.21406805473622        2.65983629489715       -1.48470520749948
H            8.64869564730825        2.03683564518169       -0.04330096427442
H            8.31268732270967        0.19163268511936        1.50505677151306
H            5.59915218961985        3.04638143594952       -2.85743688847142
H            8.01611171362775       -1.67376075580164        3.03375079657707
C            6.24199695608334       -2.84055816707340        3.16357571409610
H            4.33152054716428       -3.83352303944410        3.08509871492402
H            7.83230577796978        3.44691324243508       -1.89194134280534
H            6.61293785010710       -3.47897595581253        3.95249045379494
