113
 energy: -160.659978388854 gnorm: 0.000179820352 xtb: 6.6.1 (8d0f1dd)
C            0.89179970246198       -0.64969550763057       -1.49555057015658
C            0.06188372779473       -0.12850567285176       -0.31455508263848
H            0.54170147942047       -0.23610799769341       -2.44440391018391
H            0.86223006430267       -1.73656976471751       -1.57729197571976
H            0.08453768813428       -0.85375864708075        0.50156529084241
H           -0.97674239246926        0.06252655541473       -0.57543194017850
C            0.79645960853734        1.15731479277529        0.14073858455995
C            0.36962640810830        2.36156543834426       -0.73804862747031
C           -0.93371059420929        2.86457828418711       -0.10209465923852
H            0.25360566787132        2.08690315382308       -1.78414917075781
H            1.13510319964692        3.13739667543619       -0.66769168483241
H           -1.07072026605166        3.93882998525068       -0.22832693635394
H           -1.80663626863236        2.36558891484667       -0.53003479960538
C           -0.76542834331645        2.48603284227876        1.33995772968004
C            0.30873245814785        1.60768312858718        1.49091108450838
C            2.22828335946348        0.78072023723350       -0.13781189438214
C            2.27089626365425       -0.14992310172737       -1.17965853240415
C            3.46976962938660       -0.50014365977673       -1.76300219026741
H            3.50313770309055       -1.21573329293707       -2.57078486643186
C            3.40741365823641        1.26818277662893        0.38885702318067
C            4.63140592657752        0.96881068213214       -0.22433461265179
C            4.63394309967203        0.10537715809343       -1.31393805041248
H            5.57167749030443       -0.10014984459672       -1.80653087925553
C            0.71146526434412        1.22120234448491        2.75314302458623
C           -1.49620836339323        2.89359842133538        2.43609319385113
H           -2.33488955042703        3.56434337047965        2.32382307852926
C           -1.14333675820283        2.41828489544553        3.69021048201391
H           -1.73277483370539        2.69095114318743        4.55219116876329
C           -0.02651971769396        1.60966590161871        3.87772203677533
O            1.86510129324489        0.45089639900772        2.88821436128229
O            3.39199173352209        2.04352071697683        1.55529569047988
P            3.25393654451478        1.25739816764840        2.92586650401982
O            4.25224873518535        0.02901351017519        2.79993591839866
H            4.49131671380861       -0.31469415704069        3.66119890718393
O            3.46243596232678        2.13628334761377        4.07626728417453
C            5.88183334660353        1.64763422912618        0.19757844145994
C            6.93590330727562        0.94269454743928        0.79122021207085
C            6.01817591120920        3.01851877245689       -0.06469717936471
C            8.09746674087828        1.62110042661205        1.12878103981456
C            7.19124122303964        3.66309372181235        0.29517050085738
C            8.24162340540709        2.98215565060054        0.89559198041691
H            8.92278850667551        1.07998221144414        1.56557048507936
H            7.29289357538149        4.72315948248194        0.11768168419607
C            0.34423919871092        1.12337184239948        5.22677718150593
C            0.76892056523508        2.01616507648711        6.21994359619089
C            0.24068700098095       -0.24563128955734        5.51061763613462
C            1.12271090687783        1.51692973026624        7.46417321229018
C            0.60354724109178       -0.70485762946651        6.76703880928662
C            1.05816971375652        0.16029752479578        7.75327481035856
H            1.43516706479194        2.19755594554664        8.24163176175161
H            0.54354137151442       -1.76007191008844        6.98840762058409
C           -0.33604975854728       -1.23177409288742        4.51636891870336
H           -0.57698611732080       -0.70196698861452        3.59072298617177
C            0.82294163848092        3.51094140071486        5.99343271834571
H            0.62744675101479        3.71258401207269        4.93627634493172
C            4.94644353350758        3.81377728218626       -0.77916935806077
H            4.11767566783046        3.14659694126693       -1.03077374588540
C            6.85280674034524       -0.54231201189852        1.06830395851910
H            5.81187333310335       -0.85628287448101        0.95022745495671
C            4.39733013992006        4.92521047257176        0.11894904747696
H            4.00973345402954        4.50170652777226        1.04382859917850
H            5.17216361411585        5.64558148833553        0.37067728020122
H            3.59065795947509        5.45302863998996       -0.38717438504385
C            5.48816810283658        4.38434196742345       -2.09420730616644
H            6.27989490999764        5.10700427565074       -1.91394488391626
H            5.88672134820736        3.58413033245211       -2.71505647081577
H            4.69011163984986        4.88180827001793       -2.64183675523752
C            7.29203152008643       -0.87217253330155        2.49998145690327
H            6.96572695164359       -1.87496579264828        2.76742591723904
H            8.37478527653019       -0.83569549046565        2.59549649690351
H            6.86133004760018       -0.16427111822044        3.20440191413457
C            7.71755226577685       -1.32337102972398        0.07302440333929
H            7.38868627540279       -1.15341909014042       -0.94883963621452
H            8.75841359798840       -1.01559117414130        0.14922787207329
H            7.65548526895340       -2.38948149551478        0.28165403110861
C            2.20402072624655        4.08579403688437        6.31632759879634
H            2.44550749935410        3.97880645477341        7.37096548007887
H            2.96067869474233        3.57327597235980        5.72865628835284
H            2.23080975973612        5.14503790934967        6.06705287914904
C           -0.25419485158083        4.20832744936771        6.83250499742289
H           -0.26894505663887        5.27369497763326        6.61154137817436
H           -1.23909507975540        3.79745054157533        6.62104036650892
H           -0.05582393551527        4.08023607348959        7.89427339477483
C            0.66105379969729       -2.34151521260492        4.17527716308194
H            1.56970509594645       -1.91130428485144        3.75986425990599
H            0.92364440856808       -2.92087942272091        5.05722974282047
H            0.22953144060706       -3.01682233870337        3.43844432636500
C           -1.64249736288102       -1.81916213803921        5.06190983806444
H           -1.46331215568726       -2.40757049368245        5.95835578162986
H           -2.33978917538884       -1.02063277628542        5.30830858837249
H           -2.10420307308238       -2.46303956037963        4.31585838463728
C            9.48321783509760        3.68255097548824        1.26090891298125
C           10.06440704264262        4.59991765533493        0.38815585797470
C           10.10276484378088        3.43992500193218        2.48483945134342
C           11.23350276927919        5.25489657290230        0.72944102255781
H            9.60514500198031        4.78381850586116       -0.57277714277963
C           11.26905330212229        4.09957299107051        2.82714392775087
H            9.65264034174477        2.74496227866353        3.17951701863290
C           11.83920894602808        5.00804794591104        1.95050207426527
H           11.67592474311501        5.95971050308335        0.03949931557321
H           11.73493995931389        3.90622539339278        3.78325449235297
H           12.75149264780974        5.52164107449876        2.21790524423792
C            1.43501809357304       -0.34543870475995        9.08303550269119
C            0.64449663707088       -1.29026157975255        9.73383853367172
C            2.58600420311197        0.11484279809611        9.71874809418337
C            0.99364879700583       -1.75909171810053       10.98709716623295
H           -0.26150909665302       -1.64160424818175        9.26071838283862
C            2.93697575654982       -0.35897631311241       10.96979886853668
H            3.21713346536051        0.83479346832177        9.21688217978147
C            2.14153616932992       -1.29596034110185       11.60893907933166
H            0.36658968302762       -2.48693321482995       11.48270603306437
H            3.83590786928121        0.00310510362279       11.44877940118459
H            2.41492072110207       -1.66303478421905       12.58774648409545
