69
 energy: -105.547864118945 gnorm: 0.000465174298 xtb: 6.6.1 (8d0f1dd)
C           -0.40459632309253       -0.96475925678117       -2.15411704516103
C           -1.10505099604736        0.09760384165919       -1.29735367052070
H           -0.49701396316901       -0.74148542720121       -3.21992472162016
H           -0.80386382199676       -1.96542163388614       -1.98784315965565
H           -1.39275167461637       -0.33434262917467       -0.33649293703621
H           -1.99543558957680        0.50658945516641       -1.76971168181803
C           -0.02304924476181        1.18021252222965       -1.05512198238318
C            0.01278203726939        2.17920239704501       -2.23815812928031
C           -1.09100260815728        3.19653709030792       -1.91707563054403
H           -0.12928810232269        1.68529384736425       -3.19699420452587
H            0.98348475586738        2.67966954202142       -2.24771260835698
H           -0.87469289923188        4.18689107501423       -2.31811068605684
H           -2.05624219633016        2.87781713843844       -2.31821210997241
C           -1.11654519774725        3.19125670337491       -0.41663220124771
C           -0.41154194800881        2.09286294461537        0.07848493014255
C            1.22372563377488        0.33596572340487       -1.00220766650182
C            1.02533424758263       -0.84802890414127       -1.71629075305762
C            2.05820445553747       -1.74343001934753       -1.90038200364402
H            1.90410533701668       -2.65640495903019       -2.45603139893369
C            2.44722782224973        0.58310074294653       -0.41125288035240
C            3.50671573761976       -0.31643859813765       -0.58162125442748
C            3.29679918400443       -1.45913237745377       -1.34885158513287
H            4.12139078940907       -2.14045354967953       -1.49588311952164
C           -0.20356524009736        1.96272888095761        1.43753001497308
C           -1.67424448888648        4.11417962692307        0.44366874298118
H           -2.21887633601026        4.96512460268043        0.06237596945982
C           -1.51311639187867        3.94056941241428        1.80899452936068
H           -1.95720730638087        4.64467721383896        2.49669803303698
C           -0.76006137494231        2.88966797552024        2.32671936767888
O            0.66533594015812        0.97127583644347        1.90911772945849
O            2.60815628262825        1.69252655695513        0.42862455213266
P            2.18979349546021        1.49048710859836        1.94734836694854
O            2.91589538082533        0.15934199950578        2.42575411256826
H            3.13416136416467        0.20903317624349        3.35700983149128
O            2.45976805189526        2.68557061285862        2.74684615725578
C            4.81120118886288       -0.08002605492646        0.05850773135786
C            5.43960836850810       -1.11331255745878        0.74790363263339
C            5.43319609420995        1.16035254486663       -0.01574341591644
C            6.66292428944390       -0.91492679103827        1.36911987057483
H            4.95078148077678       -2.07417721504109        0.82132621508466
C            6.65931696633948        1.37944260160398        0.59853169110133
H            4.96055265421275        1.96425700132982       -0.56142386736252
C            7.26157266893311        0.33636276560986        1.28681793891232
H            8.21460286262566        0.50021189397225        1.77106913132398
C           -0.53831536803898        2.76989123880241        3.77611143012436
C           -0.17384806563510        3.88584494784059        4.51910890533304
C           -0.69837348288479        1.54731132201170        4.42300577292019
C            0.04794294088837        3.79131029979802        5.88653984811132
H           -0.02631410578932        4.83201714583367        4.01888044154338
C           -0.48691328765768        1.43263497491753        5.78773143055833
H           -1.00042706138027        0.68081073715715        3.85194738952180
C           -0.11239846279087        2.56170477893966        6.50738860956704
H            0.05914862714097        2.47540990456710        7.57192434617931
C            7.30279184800165        2.73183683502695        0.51957161383087
H            7.39900626274925        3.04853104170198       -0.51842894732903
H            6.68560026765641        3.46761950347586        1.03611518952113
H            8.28970348481695        2.72399184349853        0.97631721311062
C            7.33560367999099       -2.04057388910204        2.09789059005097
H            6.60100244924062       -2.68452993017447        2.57694586927979
H            7.90833033884646       -2.64786984219054        1.39539297158822
H            8.02060468302384       -1.66161249232882        2.85299416514106
C            0.46512204552282        5.00512296112218        6.66290928696927
H            1.43651537828786        5.35424945589672        6.31323175289173
H           -0.25046619571440        5.81386222231126        6.51969240935273
H            0.53630445456823        4.78511949716103        7.72530853971822
C           -0.67617013764437        0.11963603628986        6.48940391284672
H           -0.69942146793881       -0.70204915977258        5.77760915595621
H            0.12677826918038       -0.05434650121579        7.20360473367111
H           -1.61779848056400        0.12320420783400        7.03980353409011
